TITLE = "FEM OUTPUT"
VARIABLES = "X", "Y", "U", "V" "Sx" "Sy" "Txy"
ZONE N=1079, E=1172, DATAPACKING=BLOCK, ZONETYPE=FEQUADRILATERAL
VARLOCATION=([5-7]=CELLCENTERED)
0.005 0.00531411 0.00569377 0.00615145 0.00670142 0.00735977 0.00814424 0.00907388 0.0101685 0.0114474 0.0129287 0.0146265 0.0165499 0.0186998 0.0210673 0.0236321 0.0263615 0.0292119 0.0321304 0.0350588 0.0379384 0.040714 0.0433384 0.0457753 0.048 0.05 0.05 0.05 0.05 0.05 0.05 0.05 0.05 0.05 0.05 0.05 0.05 0.05 0.05 0.05 0.05 0.05 0.05 0.05 0.05 0.05 0.05 0.05 0.05 0.05 0.05 0.048 0.046 0.044 0.042 0.04 0.038 0.036 0.034 0.032 0.03 0.028 0.026 0.024 0.022 0.02 0.018 0.016 0.014 0.012 0.01 0.008 0.006 0.004 0.002 0 0 0 0 0 0 0 0 0 0 0 0 0 0 0 0 0 0 0 0 0 0 0 0 0 0 0.000313953 0.000626666 0.000936907 0.00124345 0.00154508 0.00184062 0.0021289 0.00240877 0.00267913 0.00293893 0.00318712 0.00342274 0.00364484 0.00385257 0.00404508 0.00422164 0.00438153 0.00452414 0.00464888 0.00475528 0.00484292 0.00491144 0.00496057 0.00499013 0.0063517 0.00646113 0.00604965 0.00595081 0.00185681 0.0489477 0.0485724 0.0471347 0.000199828 0.000457258 0.0483991 0.0484306 0.0467742 0.0450883 0.0457802 0.0470944 0.0484577 0.0482621 0.0434005 0.0453119 0.0309425 0.0327052 0.0303953 0.0287021 0.0483083 0.048414 0.0018274 0.0017591 0.00509525 0.00636141 0.00708057 0.00346369 0.00138603 0.00217075 0.00860801 0.00268613 0.00423068 0.0131828 0.0118723 0.0123587 0.0130128 0.0148703 0.0145148 0.00460236 0.00660177 0.00135155 0.00236316 0.00346796 0.00277196 0.048753 0.0484509 0.0313879 0.0479946 0.0483625 0.0283674 0.0480052 0.0385472 0.0369048 0.0372549 0.0383164 0.0485526 0.0213407 0.0226755 0.000993801 0.0016307 0.00136378 0.0484522 0.0480294 0.0259101 0.0231561 0.004848 0.000469934 0.000338701 0.0137808 0.0150884 0.0148651 0.0133963 0.0396185 0.0415202 0.000299409 0.000542614 0.00033003 0.00417259 0.00398856 0.00420046 0.00439624 0.00121183 0.0012713 0.000991467 0.000880025 0.0017275 0.00142632 0.000959708 0.000668527 0.00215203 0.00198127 0.00287044 0.00268217 0.0032838 0.00308394 0.00350541 0.00358964 0.00638697 0.00617182 0.00563034 0.00575973 0.00679323 0.0066845 0.00587348 0.00389363 0.00370057 0.0045571 0.00465257 0.00485848 0.00475585 0.00531853 0.00527357 0.00435125 0.00387083 0.0123289 0.0435384 0.0451618 0.0453175 0.0467297 0.046756 0.0450434 0.0361846 0.0371571 0.039213 0.0386898 0.0412296 0.0434715 0.0109748 0.00988623 0.00935151 0.00929725 0.00858437 0.00887105 0.00748258 0.00695651 0.00590716 0.0206637 0.0231755 0.0233745 0.021307 0.0325668 0.0310437 0.0301401 0.0320851 0.00352186 0.00331993 0.00449771 0.0336623 0.0341279 0.0466264 0.0480944 0.0484771 0.0280563 0.0235253 0.0251842 0.0295882 0.0300056 0.0325605 0.0319661 0.0305352 0.027986 0.0320911 0.0343238 0.0356375 0.0332323 0.00685488 0.00897388 0.00900439 0.0022726 0.00234053 0.00469797 0.00417942 0.0384687 0.036675 0.0364656 0.03838 0.0136822 0.0161447 0.0156094 0.0321742 0.0297784 0.0476188 0.0209151 0.018925 0.0192718 0.0174784 0.0170935 0.0189986 0.00116512 0.000985877 0.000521106 0.000725609 0.027499 0.0383233 0.0359192 0.0131597 0.0123745 0.0136665 0.0145773 0.0261462 0.0289902 0.0301256 0.0283128 0.0292043 0.0312279 0.0302416 0.0279398 0.0368129 0.0382677 0.0405044 0.0393073 0.0480268 0.0483418 0.0260486 0.026127 0.00930323 0.0107187 0.0279477 0.0257851 0.0270405 0.0360351 0.0299411 0.030963 0.0291824 0.0280263 0.021859 0.0238142 0.0226343 0.0210215 0.00832809 0.0119685 0.0340733 0.0362116 0.0358381 0.0122803 0.0131982 0.0122175 0.00994282 0.00546407 0.018884 0.0193974 0.0170665 0.0163906 0.0232799 0.0240244 0.0256184 0.0256238 0.0239559 0.0254427 0.0263327 0.0249005 0.0285071 0.0458364 0.0467939 0.0464663 0.0425642 0.0428511 0.0412101 0.0405462 0.0177218 0.0192215 0.0173211 0.015222 0.0240327 0.0265206 0.0390663 0.0368536 0.0239635 0.027023 0.0255117 0.0231584 0.0327109 0.0220873 0.0209423 0.0409782 0.013013 0.0140725 0.0151688 0.0141991 0.00979016 0.00869894 0.00817552 0.00903599 0.0177959 0.0170443 0.0159499 0.0167387 0.00262342 0.042283 0.0403239 0.0416233 0.0436359 0.0268768 0.0247793 0.0256089 0.016896 0.0159719 0.0180266 0.0122313 0.0137678 0.0136891 0.0120067 0.0440048 0.0452979 0.0453259 0.0439496 0.0462917 0.0450213 0.00703251 0.00503511 0.00786273 0.00862189 0.0380685 0.0358495 0.00727752 0.014767 0.0202135 0.0221611 0.0430498 0.0421344 0.0404705 0.0413232 0.0304887 0.0233224 0.0247124 0.0242444 0.0294762 0.0342987 0.031542 0.0337263 0.0124075 0.0122912 0.0136723 0.0137618 0.0211922 0.0199251 0.0200475 0.0189679 0.0199566 0.0211715 0.0126158 0.015341 0.016492 0.0194149 0.0214239 0.0212163 0.0176476 0.0172463 0.0160216 0.0216703 0.022535 0.020168 0.00490062 0.00477517 0.00703342 0.0067423 0.00727532 0.0089233 0.0219542 0.0244828 0.023828 0.0211687 0.0186655 0.0195191 0.0252578 0.03182 0.0328616 0.0295012 0.0366451 0.0345717 0.0423192 0.0411214 0.0369039 0.0346591 0.0392856 0.0397828 0.0381188 0.0371164 0.0437147 0.0425095 0.00634063 0.0465165 0.036306 0.0379396 0.0108054 0.0101945 0.0112207 0.0115743 0.00549267 0.004921 0.00509716 0.0465511 0.0464628 0.0329184 0.00755852 0.00137724 0.000871214 0.000851717 0.00113699 0.0483621 0.0473947 0.017801 0.0186892 0.0195028 0.00643748 0.0308673 0.0287336 0.0248152 0.011631 0.0132435 0.0120022 0.000936874 0.00206232 0.0268662 0.0295067 0.0270502 0.0289004 0.0160683 0.0172227 0.0467973 0.04663 0.0484035 0.0484993 0.00870899 0.0106821 0.0101477 0.044267 0.0446983 0.0483496 0.0037265 0.00383194 0.00439524 0.00534412 0.00508323 0.00507414 0.00536392 0.0104742 0.0112036 0.0105147 0.00994249 0.0405173 0.0381874 0.0184916 0.0321062 0.0309675 0.0343893 0.0354569 0.0482738 0.0467909 0.00366522 0.0206793 0.018843 0.00131479 0.0149418 0.0484686 0.00775452 0.00855315 0.0101732 0.0307537 0.0297778 0.0285013 0.00607353 0.0109032 0.010607 0.00994393 0.00822473 0.0484375 0.0451714 0.0436083 0.0462799 0.0468712 0.00677089 0.00707202 0.00742074 0.00731713 0.0168195 0.0476759 0.0040632 0.00385034 0.00353679 0.00380176 0.00134906 0.00252175 0.00268284 0.00247034 0.00225201 0.00314759 0.00281023 0.00303651 0.00817836 0.00735465 0.00764326 0.00508421 0.00487283 0.00643472 0.00626546 0.0060277 0.0079629 0.00739923 0.0069433 0.00525975 0.00498158 0.0050674 0.00530007 0.00459561 0.00244653 0.00251951 0.00275909 0.0026294 0.00559438 0.00325066 0.00339606 0.000793678 0.00090748 0.00326101 0.00236347 0.00203951 0.00206428 0.00106911 0.00467496 0.00492041 0.00513821 0.0051898 0.00552008 0.00541282 0.00134619 0.00241324 0.0055648 0.00588376 0.00563892 0.00519155 0.0101083 0.0104302 0.00954837 0.00169407 0.00192979 0.00124359 0.00147381 0.00162477 0.00207214 0.00210913 0.00266197 0.00254486 0.0482676 0.0397423 0.0401219 0.0166111 0.0160912 0.0451303 0.0430805 0.00237827 0.00240434 0.0017846 0.0457885 0.0471094 0.0451055 0.0442355 0.0450834 0.00305563 0.04684 0.0450262 0.00866245 0.0069237 0.00190537 0.00423282 0.0417469 0.0429789 0.0235368 0.0250536 0.0427953 0.0442822 0.0446862 0.0429801 0.0446872 0.0457981 0.0463514 0.0177647 0.0174556 0.0155569 0.0158 0.0449263 0.0465481 0.0146514 0.0142731 0.0156509 0.0251259 0.0262861 0.0224238 0.0236027 0.00477247 0.00451984 0.00574338 0.00605293 0.0033886 0.00534346 0.00663351 0.00515436 0.0464897 0.042782 0.0407872 0.0407203 0.0426689 0.0469147 0.0233942 0.0202985 0.0211792 0.0222965 0.0279484 0.0342586 0.0178005 0.0183098 0.016136 0.0181238 0.0424894 0.0402202 0.0138515 0.0155818 0.00367229 0.00353263 0.0148957 0.0137691 0.0141939 0.0214673 0.0193124 0.0392183 0.0398013 0.041342 0.0432485 0.0448115 0.00573928 0.00847987 0.0104159 0.0118689 0.00961487 0.0264047 0.0153257 0.0400058 0.0122872 0.0334316 0.037683 0.038536 0.0259646 0.0110605 0.00507586 0.0141606 0.0347503 0.0317195 0.0120715 0.0115944 0.0235361 0.0139954 0.0141912 0.0105805 0.0123811 0.0408561 0.0406217 0.0415091 0.0443121 0.043783 0.0221944 0.020301 0.0193184 0.0316483 0.00979369 0.0105869 0.0254548 0.0438948 0.0426173 0.0430496 0.0445593 0.025451 0.0236761 0.0329957 0.0384247 0.0349419 0.0281011 0.00383505 0.00709047 0.0390059 0.0123801 0.0131069 0.0108479 0.0104381 0.0162459 0.0348245 0.036597 0.00900203 0.00836779 0.0433767 0.0387637 0.00921373 0.00866046 0.00872587 0.00945166 0.0351831 0.0370254 0.043253 0.046453 0.0450741 0.00869902 0.0173244 0.0400664 0.0356847 0.0333774 0.0320474 0.0330129 0.0066465 0.00586897 0.00573948 0.0123196 0.010329 0.0444065 0.00917544 0.00924442 0.00988859 0.0123235 0.0127521 0.0181939 0.0194271 0.00829902 0.00823096 0.00889497 0.00920293 0.011891 0.00802914 0.00872905 0.00951738 0.0268363 0.0110125 0.0144544 0.0118708 0.012103 0.00606681 0.00565304 0.00560568 0.00591947 0.00737405 0.00347211 0.00301435 0.00318846 0.00469363 0.00498642 0.00520876 0.00479737 0.0462803 0.044591 0.0187568 0.0174296 0.0101339 0.00691646 0.0130307 0.0131574 0.0114301 0.0121187 0.0470352 0.00494185 0.00493334 0.00861013 0.00758108 0.00626526 0.00688646 0.00651814 0.00654 0.00685407 0.00911451 0.00946486 0.00865055 0.00739654 0.00692843 0.00753913 0.00258706 0.00276519 0.00289819 0.00394186 0.0116516 0.0111638 0.00848186 0.0347222 0.0030999 0.00334232 0.00226516 0.00268559 0.00257659 0.00219251 0.00360725 0.00429702 0.0092071 0.00949953 0.0117722 0.00733695 0.00796188 0.007975 0.00748127 0.00793847 0.00796628 0.00997501 0.00702009 0.00744532 0.00762305 0.0073889 0.00818611 0.00876955 0.0109602 0.00458081 0.00404887 0.00390802 0.0044444 0.0101306 0.00562052 0.00572202 0.00620876 0.00265082 0.00142216 0.00860642 0.00570088 0.00610241 0.00540444 0.00512228 0.00544421 0.0029783 0.00525327 0.00309671 0.0034931 0.00362524 0.00850407 0.00886175 0.0069452 0.00745508 0.00725506 0.00660641 0.00694495 0.00682031 0.00639035 0.00735375 0.00439746 0.00418524 0.0039554 0.00419515 0.0046105 0.00437457 0.00415749 0.00441594 0.00797653 0.00809735 0.00806461 0.00765573 0.00179823 0.00328474 0.00285168 0.00220021 0.00269611 0.00519753 0.00476751 0.00550098 0.00536491 0.00526313 0.00528519 0.00612973 0.00583056 0.00607943 0.00626444 0.00684449 0.00659272 0.00686278 0.00720298 0.00634747 0.00690917 0.00649136 0.00646572 0.00507804 0.00497836 0.00483146 0.00593697 0.00589825 0.00568646 0.00395362 0.00386847 0.00422545 0.00432409 0.00568476 0.00658417 0.00224537 0.00716718 0.00671915 0.00705967 0.00526522 0.0017957 0.00562629 0.00537539 0.00640056 0.00292326 0.00311077 0.00294106 0.00275387 0.00503432 0.00492348 0.00152661 0.00178737 0.00182041 0.00163436 0.00473247 0.00563965 0.00505068 0.00479674 0.000410924 0.00605753 0.000696881 0.00634016 0.00462522 0.00422155 0.00450784 0.00444035 0.00381684 0.0034936 0.00340301 0.00373433 0.00578431 0.00604257 0.00586199 0.00610231 0.00402475 0.00485892 0.00600237 0.00541867 0.00527203 0.00565728 0.00136188 0.00155045 0.00565757 0.00197988 0.00560899 0.003028 0.00665717 0.00181854 0.00348568 0.00315257 0.0052338 0.00566446 0.00544262 0.00499922 0.00461805 0.00458248 0.00361781 0.00577548 0.00484338 0.00376589 0.00542654 0.00522839 0.00526492 
0 0 0 0 0 0 0 0 0 0 0 0 0 0 0 0 0 0 0 0 0 0 0 0 0 0 0.002 0.004 0.006 0.008 0.01 0.012 0.014 0.016 0.018 0.02 0.022 0.024 0.026 0.028 0.03 0.032 0.034 0.036 0.038 0.04 0.042 0.044 0.046 0.048 0.05 0.05 0.05 0.05 0.05 0.05 0.05 0.05 0.05 0.05 0.05 0.05 0.05 0.05 0.05 0.05 0.05 0.05 0.05 0.05 0.05 0.05 0.05 0.05 0.05 0.05 0.048 0.0457753 0.0433384 0.040714 0.0379384 0.0350588 0.0321304 0.0292119 0.0263615 0.0236321 0.0210673 0.0186998 0.0165499 0.0146265 0.0129287 0.0114474 0.0101685 0.00907388 0.00814424 0.00735977 0.00670142 0.00615145 0.00569377 0.00531411 0.005 0.00499013 0.00496057 0.00491144 0.00484292 0.00475528 0.00464888 0.00452414 0.00438153 0.00422164 0.00404508 0.00385257 0.00364484 0.00342274 0.00318712 0.00293893 0.00267913 0.00240877 0.0021289 0.00184062 0.00154508 0.00124345 0.000936907 0.000626666 0.000313953 0.000427877 0.000815991 0.000872549 0.000634819 0.0482648 0.0489803 0.00208716 0.00181996 0.00526087 0.00524407 0.0069789 0.00544679 0.0100239 0.00924045 0.00818746 0.00842635 0.0208232 0.0189747 0.00182623 0.00181572 0.027457 0.0297642 0.0301289 0.0288228 0.0260082 0.0235523 0.0409114 0.043273 0.0480235 0.047247 0.0483657 0.0365308 0.0357865 0.0338842 0.0486475 0.0310324 0.0330609 0.0484638 0.0483509 0.0244315 0.0223708 0.0227232 0.0253505 0.0303032 0.0323717 0.022031 0.0202973 0.0215131 0.0235076 0.0311306 0.029956 0.0484285 0.0389074 0.0375278 0.048548 0.040788 0.0464023 0.0462103 0.0447309 0.0449106 0.0281931 0.048399 0.0488443 0.0118975 0.0126304 0.0136046 0.0342722 0.0322957 0.00215705 0.00218082 0.00196411 0.0065715 0.00695501 0.00113074 0.00134486 0.00272168 0.00219801 0.0485948 0.0483575 0.00551421 0.00565265 0.00583533 0.00360903 0.00338318 0.00318698 0.00344376 0.00520393 0.00544253 0.00547537 0.00517133 0.00496969 0.00508477 0.00573502 0.00539355 0.00480591 0.00498503 0.00440106 0.0045578 0.00406809 0.00425113 0.00430371 0.00388142 0.00810587 0.00861808 0.00831219 0.00766312 0.00890574 0.00966944 0.00932409 0.00370393 0.00367143 0.00321394 0.00288602 0.0030656 0.00330959 0.000263978 0.000547333 0.00297443 0.00397641 0.00107163 0.0481163 0.0474993 0.0486868 0.0456743 0.0472313 0.0460362 0.0357352 0.0334097 0.0346703 0.0366834 0.0466809 0.0466086 0.00124518 0.000926088 0.00130009 0.00192883 0.00165574 0.00104536 0.000577339 0.000525301 0.000315217 0.037055 0.0362378 0.0387724 0.0391512 0.01654 0.0177727 0.0156299 0.014831 0.0483501 0.046904 0.0464971 0.0359844 0.0333556 0.0441267 0.0437816 0.0454434 0.00186126 0.0479029 0.04865 0.0414839 0.0394425 0.0400926 0.0419707 0.00249896 0.00414615 0.00690078 0.00519995 0.00742753 0.00928961 0.0298362 0.0297709 0.0318785 0.0287762 0.0262111 0.0264615 0.0287374 0.0244448 0.0239469 0.0219082 0.0224603 0.0273698 0.0265043 0.0283285 0.0322829 0.0317996 0.0222128 0.00208359 0.00181302 0.0205895 0.0199655 0.0183987 0.0183596 0.00733432 0.00787856 0.00757691 0.00714273 0.0309673 0.0266373 0.0258202 0.0158373 0.0146414 0.0138992 0.0150313 0.0360911 0.0340248 0.0364636 0.0380046 0.019187 0.0205609 0.0222724 0.0211732 0.0142339 0.0119066 0.0127446 0.0151738 0.048244 0.0471906 0.0202191 0.0182774 0.0237365 0.0267592 0.016517 0.0156426 0.0138328 0.00984401 0.00795255 0.0101443 0.0111165 0.00888053 0.00590625 0.00705938 0.00880262 0.00750403 0.0275649 0.0296596 0.00198585 0.00128956 0.00270847 0.0321955 0.0342746 0.0359764 0.0343575 0.0349554 0.0378588 0.0393883 0.0406181 0.0383691 0.0229652 0.0215487 0.021913 0.0236823 0.0423324 0.0416221 0.0430238 0.0434549 0.0399679 0.0258782 0.0246118 0.0276592 0.0379644 0.0398999 0.039972 0.0380292 0.033087 0.0350348 0.0360386 0.0347183 0.0329657 0.0331342 0.0201366 0.0189392 0.0259317 0.0261669 0.0284357 0.0279461 0.0190456 0.0248434 0.0268747 0.03587 0.0107036 0.00960064 0.0108893 0.012377 0.0124657 0.0127007 0.0118167 0.0115995 0.00930952 0.0106893 0.00954527 0.0084211 0.0389129 0.00937791 0.00782224 0.00606163 0.00738606 0.0407436 0.0404763 0.0391548 0.0240358 0.0209535 0.0222365 0.0449796 0.0454756 0.0471265 0.0467385 0.00568111 0.00536401 0.00686808 0.0131961 0.0136097 0.0153442 0.0417258 0.0404007 0.0395779 0.0409078 0.00976641 0.0116368 0.0254479 0.0316735 0.0288756 0.030273 0.0298832 0.0314425 0.0304775 0.0285156 0.0434052 0.0180573 0.0170451 0.0194348 0.0132781 0.0144512 0.0125333 0.0118875 0.0204953 0.0191242 0.0193484 0.0207857 0.0218651 0.0236719 0.0113922 0.0104634 0.00892266 0.00994909 0.0123487 0.0131682 0.0144092 0.0166424 0.0165518 0.01893 0.0425925 0.0446124 0.0430062 0.0456457 0.0473095 0.047262 0.0198619 0.0175049 0.0181048 0.0197714 0.0221025 0.0199484 0.0120735 0.0125912 0.0149602 0.0139429 0.00777418 0.00607602 0.0304035 0.023952 0.026118 0.0251229 0.0161914 0.0170164 0.0143278 0.0164407 0.0386919 0.0385335 0.0288052 0.00481827 0.00725011 0.00425137 0.0105623 0.0118722 0.0374928 0.033888 0.0480801 0.048041 0.0104255 0.00991851 0.00946539 0.0100907 0.00879291 0.0088326 0.00817467 0.0408013 0.0385706 0.00367968 0.034595 0.00632675 0.00664008 0.00623912 0.00608135 0.0135394 0.0150953 0.0462571 0.0443226 0.0453282 0.0282975 0.005161 0.00605276 0.00343371 0.00228349 0.00342013 0.00368846 0.0106381 0.0110618 0.0482176 0.0457197 0.044847 0.04373 0.00189306 0.00148311 0.00522847 0.00664099 0.0102408 0.00888905 0.0449862 0.0446035 0.046593 0.026488 0.028096 0.0119696 0.00879816 0.0080421 0.00838889 0.00151252 0.00148993 0.00128157 0.00125598 0.00733224 0.00812051 0.00871238 0.00783492 0.00254056 0.00217953 0.0481305 0.0443317 0.0452515 0.0472903 0.0454893 0.0359244 0.048561 0.0422596 0.00420582 0.00337853 0.0191131 0.0485017 0.00377556 0.0460998 0.0471158 0.0483684 0.0467484 0.0477117 0.0468836 0.0453911 0.00505339 0.00616037 0.0054334 0.000641925 0.0157409 0.0172152 0.0166497 0.0162087 0.0035683 0.00604069 0.00577037 0.00595183 0.00642038 0.0484114 0.017242 0.00503033 0.00534338 0.00504221 0.00484791 0.0150658 0.0056573 0.00587453 0.00604075 0.00584044 0.00484348 0.00476477 0.00457367 0.00239874 0.00239594 0.00185732 0.00205392 0.00219202 0.00188426 0.00227505 0.00203092 0.00133591 0.00118866 0.00105338 0.00393435 0.00384077 0.00354178 0.00359322 0.00259037 0.00514128 0.00490392 0.00509651 0.00528504 0.000471057 0.00514182 0.0047305 0.008656 0.00952829 0.0044671 0.00540331 0.00556754 0.00517948 0.00502964 0.0023422 0.00242598 0.00261622 0.0022639 0.00235352 0.00275109 0.00689609 0.00470949 0.00174161 0.0018248 0.00200014 0.00104709 0.00192257 0.00290089 0.00282124 0.00927716 0.0100317 0.010061 0.00796971 0.00747276 0.00760784 0.00831893 0.0124238 0.0137629 0.0423034 0.0472322 0.0454978 0.00325251 0.0469665 0.00373377 0.00429325 0.0451562 0.0149403 0.0170392 0.0318186 0.0311889 0.0397945 0.0387407 0.0373849 0.0185941 0.0425749 0.042131 0.0428706 0.0440826 0.0467091 0.0441581 0.0435575 0.0449439 0.0458944 0.046553 0.0416304 0.0409363 0.0443364 0.0187306 0.0189482 0.0231328 0.0214145 0.00507582 0.00677334 0.00658296 0.00489787 0.0116485 0.0118733 0.041089 0.0435829 0.0453127 0.00965733 0.0072695 0.0037492 0.00479717 0.0134156 0.0123515 0.0124897 0.0136966 0.0159616 0.0149146 0.0160788 0.0218158 0.0184069 0.0264546 0.0265238 0.0244876 0.0245376 0.0198335 0.0407645 0.0319976 0.0339585 0.0204343 0.0422298 0.0203576 0.0281234 0.0258338 0.0301834 0.0304986 0.0339038 0.032904 0.0174191 0.0191684 0.012912 0.0116806 0.00825243 0.00724094 0.00582693 0.0414771 0.0411276 0.0435441 0.0415808 0.0417074 0.0280054 0.0302314 0.0429521 0.036859 0.0364756 0.038791 0.0389767 0.0115572 0.016616 0.040353 0.0133465 0.0431418 0.0428338 0.0410051 0.00460449 0.0215429 0.0238129 0.0298972 0.0282765 0.0345575 0.0175974 0.0161099 0.0108497 0.0390871 0.0365964 0.0428579 0.0431356 0.0223033 0.0186476 0.0206098 0.0334099 0.0317019 0.0436008 0.0439796 0.0430271 0.0375241 0.0107683 0.0113071 0.0138638 0.0230422 0.0226904 0.0208785 0.0222058 0.0450257 0.0445622 0.0216385 0.0172217 0.0234498 0.0234271 0.0139609 0.0147268 0.0395063 0.00958614 0.00852457 0.0192511 0.0178535 0.0119874 0.0411387 0.0406474 0.0149368 0.0165224 0.0362322 0.0315684 0.00534643 0.00542771 0.00468716 0.00478471 0.0310039 0.0295907 0.0428446 0.0295482 0.0204789 0.018081 0.015973 0.0103325 0.0437218 0.0454765 0.0463805 0.0480256 0.0104486 0.0112374 0.0101158 0.041015 0.0408953 0.0242989 0.00408339 0.00336253 0.00364547 0.00725495 0.00640784 0.0118204 0.0125625 0.00859194 0.00785561 0.00771055 0.00852215 0.0108856 0.0137556 0.0133586 0.013581 0.0466085 0.0145204 0.00426387 0.00600638 0.00487694 0.00447926 0.00460771 0.0042163 0.00419477 0.0128565 0.00653477 0.00656064 0.00625165 0.00635134 0.00615446 0.00646231 0.0066979 0.0358976 0.035145 0.0143514 0.0132027 0.0164846 0.0118773 0.00531145 0.00427143 0.00683991 0.00823568 0.037332 0.011219 0.00998044 0.0105187 0.0109645 0.00663968 0.00692487 0.00744131 0.00559996 0.00545618 0.00678156 0.00738059 0.00706433 0.00905928 0.00829717 0.00846321 0.00901169 0.00982302 0.0106778 0.0104906 0.0121387 0.0131321 0.00402168 0.0487595 0.00853508 0.00782454 0.00630805 0.0064083 0.00683352 0.00662389 0.00969967 0.00932772 0.00951966 0.00588178 0.00903775 0.00352528 0.00317184 0.00370756 0.00392916 0.00439175 0.00493929 0.00662117 0.00775005 0.00719812 0.00788905 0.00994915 0.00941517 0.00267636 0.00380063 0.00790911 0.00759666 0.00702954 0.0070029 0.00430057 0.00641057 0.00587788 0.0060156 0.00788187 0.00863909 0.00330193 0.00383971 0.00390334 0.00503873 0.00472821 0.00475549 0.00690631 0.00938981 0.00740059 0.00705842 0.00750123 0.00662026 0.00623424 0.00489915 0.00485308 0.00530782 0.00397387 0.00399905 0.00444968 0.00420238 0.00447773 0.00443168 0.00469089 0.00447207 0.00423076 0.00550208 0.00573704 0.00544331 0.00520785 0.00654403 0.00599893 0.00715377 0.00543782 0.00700185 0.00913665 0.0061135 0.00723566 0.00741919 0.00703359 0.00743069 0.00553025 0.00614174 0.00583613 0.00446143 0.00552642 0.00530148 0.00495695 0.00519896 0.00324419 0.00290396 0.00266722 0.00302752 0.0033283 0.00361283 0.00370459 0.00475143 0.00327563 0.00280705 0.0026078 0.00239842 0.00277633 0.00258094 0.00666567 0.00635322 0.00618322 0.00654748 0.00493522 0.00511353 0.00500364 0.00172331 0.00136951 0.00216089 0.00766753 0.00642988 0.00072025 0.000675631 0.00118418 0.00567166 0.00588215 0.00533208 0.00548652 0.00531963 0.00583639 0.00533322 0.00522897 0.00545418 0.00556603 0.0035709 0.00702983 0.00425173 0.00406019 0.00615875 0.00157104 0.00594245 0.00270617 0.00602931 0.00387351 0.00387318 0.00413002 0.00600631 0.00605972 0.00574574 0.00566309 0.000902585 0.00353381 0.00320822 0.00306729 0.00573047 0.00500221 0.0011368 0.00205716 0.00182373 0.00148045 0.00573528 0.00599976 0.00113412 0.00610004 0.003504 0.00510358 0.00236342 0.00574655 0.00539177 0.00543576 0.00300579 0.00297987 0.00321674 0.00175683 0.00428611 0.00474118 0.00456649 0.00219823 0.00450181 0.00425023 0.000917156 0.000780468 0.00335902 